# vtk DataFile Version 2.0
FEAresults
ASCII
DATASET UNSTRUCTURED_GRID
POINTS 21 float
0 0 0
0.5 0 0
1 0 0
1.5 0 0
2 0 0
2.5 0 0
3 0 0
0 0.5 0
0.5 0.5 0
1 0.5 0
1.5 0.5 0
2 0.5 0
2.5 0.5 0
3 0.5 0
0 1 0
0.5 1 0
1 1 0
1.5 1 0
2 1 0
2.5 1 0
3 1 0
CELLS 12 60
4 0 1 8 7
4 1 2 9 8
4 2 3 10 9
4 3 4 11 10
4 4 5 12 11
4 5 6 13 12
4 7 8 15 14
4 8 9 16 15
4 9 10 17 16
4 10 11 18 17
4 11 12 19 18
4 12 13 20 19
CELL_TYPES 12
9
9
9
9
9
9
9
9
9
9
9
9
POINT_DATA 21
VECTORS DISP float
0 0 0
1.022336784 0.609568783 0
1.887916599 2.283219664 0
2.556097476 4.701845184 0
3.034082284 7.698052317 0
3.321535536 11.07329047 0
3.413162969 14.65455145 0
0 0 0
2.664228055e-17 0.7841965724 0
1.079332081e-16 2.392227646 0
2.694000586e-16 4.789044772 0
3.575456611e-16 7.75444597 0
4.982762262e-16 11.10625421 0
1.039228982e-16 14.63112031 0
0 0 0
-1.022336784 0.609568783 0
-1.887916599 2.283219664 0
-2.556097476 4.701845184 0
-3.034082284 7.698052317 0
-3.321535536 11.07329047 0
-3.413162969 14.65455145 0
VECTORS Freact float
-90000 4653.216406 0
4.365574569e-11 -5.456968211e-12 0
-7.275957614e-11 -2.273736754e-11 0
1.018634066e-10 0 0
-3.637978807e-11 -1.291482477e-10 0
-6.184563972e-11 -1.391526894e-10 0
-6.946265785e-11 5.456968211e-11 0
-1.455191523e-11 -39306.43281 0
-7.275957614e-12 -1.546140993e-11 0
-5.27506927e-11 4.638422979e-11 0
9.094947018e-12 1.155058271e-10 0
1.47792889e-11 4.547473509e-11 0
1.264197635e-10 -1.809894457e-10 0
-1.091393642e-11 6.002665032e-11 0
90000 4653.216406 0
1.455191523e-11 -3.637978807e-12 0
2.182787284e-11 -1.045918907e-10 0
5.820766091e-11 5.09317033e-11 0
-4.001776688e-11 -5.638867151e-11 0
-1.091393642e-11 2.655724529e-10 0
6.821210263e-12 -1.818989404e-12 0
