# vtk DataFile Version 2.0
FEAresults
ASCII
DATASET UNSTRUCTURED_GRID
POINTS 2821 float
0 0 0
0.03333333333 0 0
0.06666666667 0 0
0.1 0 0
0.1333333333 0 0
0.1666666667 0 0
0.2 0 0
0.2333333333 0 0
0.2666666667 0 0
0.3 0 0
0.3333333333 0 0
0.3666666667 0 0
0.4 0 0
0.4333333333 0 0
0.4666666667 0 0
0.5 0 0
0.5333333333 0 0
0.5666666667 0 0
0.6 0 0
0.6333333333 0 0
0.6666666667 0 0
0.7 0 0
0.7333333333 0 0
0.7666666667 0 0
0.8 0 0
0.8333333333 0 0
0.8666666667 0 0
0.9 0 0
0.9333333333 0 0
0.9666666667 0 0
1 0 0
1.033333333 0 0
1.066666667 0 0
1.1 0 0
1.133333333 0 0
1.166666667 0 0
1.2 0 0
1.233333333 0 0
1.266666667 0 0
1.3 0 0
1.333333333 0 0
1.366666667 0 0
1.4 0 0
1.433333333 0 0
1.466666667 0 0
1.5 0 0
1.533333333 0 0
1.566666667 0 0
1.6 0 0
1.633333333 0 0
1.666666667 0 0
1.7 0 0
1.733333333 0 0
1.766666667 0 0
1.8 0 0
1.833333333 0 0
1.866666667 0 0
1.9 0 0
1.933333333 0 0
1.966666667 0 0
2 0 0
2.033333333 0 0
2.066666667 0 0
2.1 0 0
2.133333333 0 0
2.166666667 0 0
2.2 0 0
2.233333333 0 0
2.266666667 0 0
2.3 0 0
2.333333333 0 0
2.366666667 0 0
2.4 0 0
2.433333333 0 0
2.466666667 0 0
2.5 0 0
2.533333333 0 0
2.566666667 0 0
2.6 0 0
2.633333333 0 0
2.666666667 0 0
2.7 0 0
2.733333333 0 0
2.766666667 0 0
2.8 0 0
2.833333333 0 0
2.866666667 0 0
2.9 0 0
2.933333333 0 0
2.966666667 0 0
3 0 0
0 0.03333333333 0
0.03333333333 0.03333333333 0
0.06666666667 0.03333333333 0
0.1 0.03333333333 0
0.1333333333 0.03333333333 0
0.1666666667 0.03333333333 0
0.2 0.03333333333 0
0.2333333333 0.03333333333 0
0.2666666667 0.03333333333 0
0.3 0.03333333333 0
0.3333333333 0.03333333333 0
0.3666666667 0.03333333333 0
0.4 0.03333333333 0
0.4333333333 0.03333333333 0
0.4666666667 0.03333333333 0
0.5 0.03333333333 0
0.5333333333 0.03333333333 0
0.5666666667 0.03333333333 0
0.6 0.03333333333 0
0.6333333333 0.03333333333 0
0.6666666667 0.03333333333 0
0.7 0.03333333333 0
0.7333333333 0.03333333333 0
0.7666666667 0.03333333333 0
0.8 0.03333333333 0
0.8333333333 0.03333333333 0
0.8666666667 0.03333333333 0
0.9 0.03333333333 0
0.9333333333 0.03333333333 0
0.9666666667 0.03333333333 0
1 0.03333333333 0
1.033333333 0.03333333333 0
1.066666667 0.03333333333 0
1.1 0.03333333333 0
1.133333333 0.03333333333 0
1.166666667 0.03333333333 0
1.2 0.03333333333 0
1.233333333 0.03333333333 0
1.266666667 0.03333333333 0
1.3 0.03333333333 0
1.333333333 0.03333333333 0
1.366666667 0.03333333333 0
1.4 0.03333333333 0
1.433333333 0.03333333333 0
1.466666667 0.03333333333 0
1.5 0.03333333333 0
1.533333333 0.03333333333 0
1.566666667 0.03333333333 0
1.6 0.03333333333 0
1.633333333 0.03333333333 0
1.666666667 0.03333333333 0
1.7 0.03333333333 0
1.733333333 0.03333333333 0
1.766666667 0.03333333333 0
1.8 0.03333333333 0
1.833333333 0.03333333333 0
1.866666667 0.03333333333 0
1.9 0.03333333333 0
1.933333333 0.03333333333 0
1.966666667 0.03333333333 0
2 0.03333333333 0
2.033333333 0.03333333333 0
2.066666667 0.03333333333 0
2.1 0.03333333333 0
2.133333333 0.03333333333 0
2.166666667 0.03333333333 0
2.2 0.03333333333 0
2.233333333 0.03333333333 0
2.266666667 0.03333333333 0
2.3 0.03333333333 0
2.333333333 0.03333333333 0
2.366666667 0.03333333333 0
2.4 0.03333333333 0
2.433333333 0.03333333333 0
2.466666667 0.03333333333 0
2.5 0.03333333333 0
2.533333333 0.03333333333 0
2.566666667 0.03333333333 0
2.6 0.03333333333 0
2.633333333 0.03333333333 0
2.666666667 0.03333333333 0
2.7 0.03333333333 0
2.733333333 0.03333333333 0
2.766666667 0.03333333333 0
2.8 0.03333333333 0
2.833333333 0.03333333333 0
2.866666667 0.03333333333 0
2.9 0.03333333333 0
2.933333333 0.03333333333 0
2.966666667 0.03333333333 0
3 0.03333333333 0
0 0.06666666667 0
0.03333333333 0.06666666667 0
0.06666666667 0.06666666667 0
0.1 0.06666666667 0
0.1333333333 0.06666666667 0
0.1666666667 0.06666666667 0
0.2 0.06666666667 0
0.2333333333 0.06666666667 0
0.2666666667 0.06666666667 0
0.3 0.06666666667 0
0.3333333333 0.06666666667 0
0.3666666667 0.06666666667 0
0.4 0.06666666667 0
0.4333333333 0.06666666667 0
0.4666666667 0.06666666667 0
0.5 0.06666666667 0
0.5333333333 0.06666666667 0
0.5666666667 0.06666666667 0
0.6 0.06666666667 0
0.6333333333 0.06666666667 0
0.6666666667 0.06666666667 0
0.7 0.06666666667 0
0.7333333333 0.06666666667 0
0.7666666667 0.06666666667 0
0.8 0.06666666667 0
0.8333333333 0.06666666667 0
0.8666666667 0.06666666667 0
0.9 0.06666666667 0
0.9333333333 0.06666666667 0
0.9666666667 0.06666666667 0
1 0.06666666667 0
1.033333333 0.06666666667 0
1.066666667 0.06666666667 0
1.1 0.06666666667 0
1.133333333 0.06666666667 0
1.166666667 0.06666666667 0
1.2 0.06666666667 0
1.233333333 0.06666666667 0
1.266666667 0.06666666667 0
1.3 0.06666666667 0
1.333333333 0.06666666667 0
1.366666667 0.06666666667 0
1.4 0.06666666667 0
1.433333333 0.06666666667 0
1.466666667 0.06666666667 0
1.5 0.06666666667 0
1.533333333 0.06666666667 0
1.566666667 0.06666666667 0
1.6 0.06666666667 0
1.633333333 0.06666666667 0
1.666666667 0.06666666667 0
1.7 0.06666666667 0
1.733333333 0.06666666667 0
1.766666667 0.06666666667 0
1.8 0.06666666667 0
1.833333333 0.06666666667 0
1.866666667 0.06666666667 0
1.9 0.06666666667 0
1.933333333 0.06666666667 0
1.966666667 0.06666666667 0
2 0.06666666667 0
2.033333333 0.06666666667 0
2.066666667 0.06666666667 0
2.1 0.06666666667 0
2.133333333 0.06666666667 0
2.166666667 0.06666666667 0
2.2 0.06666666667 0
2.233333333 0.06666666667 0
2.266666667 0.06666666667 0
2.3 0.06666666667 0
2.333333333 0.06666666667 0
2.366666667 0.06666666667 0
2.4 0.06666666667 0
2.433333333 0.06666666667 0
2.466666667 0.06666666667 0
2.5 0.06666666667 0
2.533333333 0.06666666667 0
2.566666667 0.06666666667 0
2.6 0.06666666667 0
2.633333333 0.06666666667 0
2.666666667 0.06666666667 0
2.7 0.06666666667 0
2.733333333 0.06666666667 0
2.766666667 0.06666666667 0
2.8 0.06666666667 0
2.833333333 0.06666666667 0
2.866666667 0.06666666667 0
2.9 0.06666666667 0
2.933333333 0.06666666667 0
2.966666667 0.06666666667 0
3 0.06666666667 0
0 0.1 0
0.03333333333 0.1 0
0.06666666667 0.1 0
0.1 0.1 0
0.1333333333 0.1 0
0.1666666667 0.1 0
0.2 0.1 0
0.2333333333 0.1 0
0.2666666667 0.1 0
0.3 0.1 0
0.3333333333 0.1 0
0.3666666667 0.1 0
0.4 0.1 0
0.4333333333 0.1 0
0.4666666667 0.1 0
0.5 0.1 0
0.5333333333 0.1 0
0.5666666667 0.1 0
0.6 0.1 0
0.6333333333 0.1 0
0.6666666667 0.1 0
0.7 0.1 0
0.7333333333 0.1 0
0.7666666667 0.1 0
0.8 0.1 0
0.8333333333 0.1 0
0.8666666667 0.1 0
0.9 0.1 0
0.9333333333 0.1 0
0.9666666667 0.1 0
1 0.1 0
1.033333333 0.1 0
1.066666667 0.1 0
1.1 0.1 0
1.133333333 0.1 0
1.166666667 0.1 0
1.2 0.1 0
1.233333333 0.1 0
1.266666667 0.1 0
1.3 0.1 0
1.333333333 0.1 0
1.366666667 0.1 0
1.4 0.1 0
1.433333333 0.1 0
1.466666667 0.1 0
1.5 0.1 0
1.533333333 0.1 0
1.566666667 0.1 0
1.6 0.1 0
1.633333333 0.1 0
1.666666667 0.1 0
1.7 0.1 0
1.733333333 0.1 0
1.766666667 0.1 0
1.8 0.1 0
1.833333333 0.1 0
1.866666667 0.1 0
1.9 0.1 0
1.933333333 0.1 0
1.966666667 0.1 0
2 0.1 0
2.033333333 0.1 0
2.066666667 0.1 0
2.1 0.1 0
2.133333333 0.1 0
2.166666667 0.1 0
2.2 0.1 0
2.233333333 0.1 0
2.266666667 0.1 0
2.3 0.1 0
2.333333333 0.1 0
2.366666667 0.1 0
2.4 0.1 0
2.433333333 0.1 0
2.466666667 0.1 0
2.5 0.1 0
2.533333333 0.1 0
2.566666667 0.1 0
2.6 0.1 0
2.633333333 0.1 0
2.666666667 0.1 0
2.7 0.1 0
2.733333333 0.1 0
2.766666667 0.1 0
2.8 0.1 0
2.833333333 0.1 0
2.866666667 0.1 0
2.9 0.1 0
2.933333333 0.1 0
2.966666667 0.1 0
3 0.1 0
0 0.1333333333 0
0.03333333333 0.1333333333 0
0.06666666667 0.1333333333 0
0.1 0.1333333333 0
0.1333333333 0.1333333333 0
0.1666666667 0.1333333333 0
0.2 0.1333333333 0
0.2333333333 0.1333333333 0
0.2666666667 0.1333333333 0
0.3 0.1333333333 0
0.3333333333 0.1333333333 0
0.3666666667 0.1333333333 0
0.4 0.1333333333 0
0.4333333333 0.1333333333 0
0.4666666667 0.1333333333 0
0.5 0.1333333333 0
0.5333333333 0.1333333333 0
0.5666666667 0.1333333333 0
0.6 0.1333333333 0
0.6333333333 0.1333333333 0
0.6666666667 0.1333333333 0
0.7 0.1333333333 0
0.7333333333 0.1333333333 0
0.7666666667 0.1333333333 0
0.8 0.1333333333 0
0.8333333333 0.1333333333 0
0.8666666667 0.1333333333 0
0.9 0.1333333333 0
0.9333333333 0.1333333333 0
0.9666666667 0.1333333333 0
1 0.1333333333 0
1.033333333 0.1333333333 0
1.066666667 0.1333333333 0
1.1 0.1333333333 0
1.133333333 0.1333333333 0
1.166666667 0.1333333333 0
1.2 0.1333333333 0
1.233333333 0.1333333333 0
1.266666667 0.1333333333 0
1.3 0.1333333333 0
1.333333333 0.1333333333 0
1.366666667 0.1333333333 0
1.4 0.1333333333 0
1.433333333 0.1333333333 0
1.466666667 0.1333333333 0
1.5 0.1333333333 0
1.533333333 0.1333333333 0
1.566666667 0.1333333333 0
1.6 0.1333333333 0
1.633333333 0.1333333333 0
1.666666667 0.1333333333 0
1.7 0.1333333333 0
1.733333333 0.1333333333 0
1.766666667 0.1333333333 0
1.8 0.1333333333 0
1.833333333 0.1333333333 0
1.866666667 0.1333333333 0
1.9 0.1333333333 0
1.933333333 0.1333333333 0
1.966666667 0.1333333333 0
2 0.1333333333 0
2.033333333 0.1333333333 0
2.066666667 0.1333333333 0
2.1 0.1333333333 0
2.133333333 0.1333333333 0
2.166666667 0.1333333333 0
2.2 0.1333333333 0
2.233333333 0.1333333333 0
2.266666667 0.1333333333 0
2.3 0.1333333333 0
2.333333333 0.1333333333 0
2.366666667 0.1333333333 0
2.4 0.1333333333 0
2.433333333 0.1333333333 0
2.466666667 0.1333333333 0
2.5 0.1333333333 0
2.533333333 0.1333333333 0
2.566666667 0.1333333333 0
2.6 0.1333333333 0
2.633333333 0.1333333333 0
2.666666667 0.1333333333 0
2.7 0.1333333333 0
2.733333333 0.1333333333 0
2.766666667 0.1333333333 0
2.8 0.1333333333 0
2.833333333 0.1333333333 0
2.866666667 0.1333333333 0
2.9 0.1333333333 0
2.933333333 0.1333333333 0
2.966666667 0.1333333333 0
3 0.1333333333 0
0 0.1666666667 0
0.03333333333 0.1666666667 0
0.06666666667 0.1666666667 0
0.1 0.1666666667 0
0.1333333333 0.1666666667 0
0.1666666667 0.1666666667 0
0.2 0.1666666667 0
0.2333333333 0.1666666667 0
0.2666666667 0.1666666667 0
0.3 0.1666666667 0
0.3333333333 0.1666666667 0
0.3666666667 0.1666666667 0
0.4 0.1666666667 0
0.4333333333 0.1666666667 0
0.4666666667 0.1666666667 0
0.5 0.1666666667 0
0.5333333333 0.1666666667 0
[...]
POINT_DATA 2821
VECTORS DISP float
0 0 0
0.6953281224 -0.4486369462 0
1.609037685 -0.5339695311 0
2.540306385 -0.426320095 0
3.45825975 -0.1854318405 0
4.356633045 0.1563902993 0
5.23521679 0.5817765425 0
6.095119854 1.080107553 0
6.937727287 1.644535496 0
7.764358307 2.27042197 0
8.576167842 2.954503948 0
9.374127317 3.694400475 0
10.15903598 4.488308443 0
10.93154247 5.334807973 0
11.69216851 6.23273514 0
12.44133119 7.181097501 0
13.17936263 8.179017538 0
13.90652657 9.225694592 0
14.62303218 10.32037922 0
15.32904527 11.46235591 0
16.02469726 12.65093148 0
16.71009246 13.88542729 0
17.38531372 15.16517406 0
18.05042699 16.48950848 0
18.70548485 17.85777092 0
19.35052933 19.269304 0
19.9855941 20.72345165 0
20.6107062 22.21955852 0
21.22588739 23.75696959 0
21.83115526 25.33503002 0
22.42652401 26.95308493 0
23.01200518 28.61047942 0
23.58760814 30.30655848 0
24.15334053 32.04066702 0
24.7092086 33.81214984 0
25.25521745 35.62035167 0
25.79137128 37.46461713 0
26.31767355 39.3442908 0
26.83412712 41.2587172 0
27.34073436 43.20724078 0
27.83749725 45.18920598 0
28.32441745 47.20395719 0
28.80149639 49.25083877 0
29.26873528 51.32919507 0
29.72613518 53.43837041 0
30.17369707 55.5777091 0
30.61142183 57.74655543 0
31.03931029 59.94425367 0
31.4573633 62.17014809 0
31.86558169 64.42358295 0
32.26396638 66.70390247 0
32.65251836 69.01045088 0
33.03123873 71.34257238 0
33.40012876 73.69961114 0
33.75918996 76.08091133 0
34.10842407 78.48581707 0
34.44783319 80.91367243 0
34.77741986 83.36382147 0
35.09718713 85.83560817 0
35.4071387 88.32837646 0
35.7072791 90.84147019 0
35.99761386 93.37423314 0
36.27814977 95.926009 0
36.54889517 98.49614138 0
36.80986036 101.0839738 0
37.06105808 103.6888498 0
37.30250414 106.310113 0
37.53421819 108.9471071 0
37.75622474 111.5991763 0
37.96855446 114.2656656 0
38.17124581 116.9459216 0
38.36434713 119.6392933 0
38.54791936 122.3451336 0
38.72203947 125.0628022 0
38.88680483 127.7916687 0
39.04233884 130.5311184 0
39.18879801 133.2805605 0
39.32638097 136.0394406 0
39.45533971 138.8072594 0
39.57599378 141.5835999 0
39.68874772 144.3681687 0
39.79411254 147.1608585 0
39.89273178 149.961842 0
39.98541257 152.771718 0
40.07316168 155.5917444 0
40.15722589 158.4242249 0
40.23912343 161.2732135 0
40.32064776 164.1458501 0
40.40325731 167.0560188 0
40.48528975 170.0314549 0
40.5142087 173.1698259 0
0 0 0
0.7864769096 -0.227145143 0
1.565615265 -0.2828598512 0
2.371395952 -0.1672994448 0
3.184749729 0.07226405215 0
3.994545105 0.4105587469 0
4.795492128 0.8316578709 0
5.585323565 1.325580487 0
6.363204736 1.885696264 0
7.128983655 2.50744607 0
7.882822941 3.187582713 0
8.625016061 3.923715008 0
9.355894627 4.714019369 0
10.07578266 5.557052762 0
10.78497558 6.451628899 0
11.48373236 7.396735242 0
12.17227445 8.391476923 0
12.8507881 9.43503868 0
13.51942821 10.52665898 0
14.17832254 11.66561241 0
14.82757588 12.85119775 0
15.46727382 14.08272987 0
16.09748613 15.35953428 0
16.71826951 16.68094348 0
17.32967006 18.04629449 0
17.93172521 19.45492725 0
18.52446538 20.90618353 0
19.10791528 22.39940625 0
19.68209499 23.93393904 0
20.2470209 25.50912592 0
20.80270631 27.12431114 0
21.34916212 28.77883907 0
21.88639721 30.47205414 0
22.41441885 32.20330076 0
22.933233 33.97192338 0
23.44284456 35.7772664 0
23.94325754 37.61867421 0
24.43447527 39.49549119 0
24.9165005 41.40706167 0
25.38933552 43.35273 0
25.85298221 45.3318405 0
26.30744221 47.34373746 0
26.75271685 49.3877652 0
27.18880734 51.463268 0
27.61571468 53.56959015 0
28.03343982 55.70607592 0
28.44198359 57.8720696 0
28.84134682 60.06691544 0
29.2315303 62.28995771 0
29.61253486 64.54054068 0
29.98436136 66.8180086 0
30.34701077 69.12170573 0
30.70048414 71.4509763 0
31.0447827 73.80516456 0
31.3799079 76.18361473 0
31.70586143 78.58567103 0
32.0226453 81.01067766 0
32.33026195 83.4579788 0
32.62871431 85.92691862 0
32.91800594 88.41684127 0
33.19814115 90.92709088 0
33.46912522 93.45701156 0
33.7309646 96.00594742 0
33.98366718 98.57324259 0
34.22724262 101.1582413 0
34.46170283 103.7602878 0
34.68706242 106.3787267 0
34.90333939 109.0129031 0
35.11055596 111.6621626 0
35.30873952 114.3258525 0
35.49792388 117.0033215 0
35.67815078 119.6939219 0
35.8494717 122.3970107 0
36.0119501 125.1119522 0
36.16566402 127.8381222 0
36.31070912 130.5749136 0
36.44720215 133.3217451 0
36.57528468 136.0780739 0
36.69512679 138.8434144 0
36.80693013 141.6173665 0
36.91092919 144.3996565 0
37.0073885 147.190199 0
37.09659168 149.9891897 0
37.17881405 152.7972487 0
37.25426251 155.6156445 0
37.3229464 158.4466653 0
37.38439629 161.2942511 0
37.43700324 164.1652819 0
37.47651242 167.0717132 0
37.49242426 170.0387248 0
37.47896511 173.0896289 0
0 0 0
0.7328545112 -0.09103754563 0
1.465340897 -0.08171963405 0
2.196761236 0.05399567222 0
2.930011596 0.3006176461 0
3.662151468 0.6400929517 0
4.389959209 1.059903281 0
5.111122546 1.551378683 0
5.82420837 2.108523021 0
6.528402558 2.72708391 0
7.223287493 3.403969121 0
7.908687203 4.136864124 0
8.584566944 4.923980943 0
9.250970091 5.763890235 0
9.907979328 6.655407854 0
10.55569334 7.597517583 0
11.19421327 8.589318244 0
11.82363527 9.6299874 0
12.44404682 10.71875642 0
13.05552522 11.85489333 0
13.65813749 13.03769111 0
14.2519409 14.26645963 0
14.83698391 15.54052015 0
15.4133072 16.85920161 0
15.98094471 18.22183808 0
16.53992466 19.62776709 0
17.09027044 21.07632841 0
17.63200137 22.56686335 0
18.1651334 24.09871419 0
18.68967967 25.67122389 0
19.20565101 27.28373582 0
19.71305634 28.93559363 0
20.211903 30.62614117 0
20.70219703 32.3547224 0
21.18394343 34.12068137 0
21.65714629 35.92336216 0
22.12180903 37.76210893 0
22.57793444 39.63626584 0
23.02552487 41.54517706 0
23.46458225 43.48818679 0
23.89510821 45.46463926 0
24.31710412 47.47387867 0
24.73057115 49.51524925 0
25.13551031 51.58809526 0
25.53192247 53.69176092 0
25.91980843 55.82559048 0
26.29916892 57.98892822 0
26.67000464 60.18111838 0
27.03231628 62.40150523 0
27.38610453 64.64943305 0
27.73137014 66.92424611 0
28.06811394 69.22528869 0
28.39633683 71.55190509 0
28.71603987 73.90343961 0
29.02722428 76.27923653 0
29.32989149 78.67864018 0
29.62404324 81.10099487 0
29.90968158 83.54564494 0
30.18680897 86.01193473 0
30.45542842 88.49920862 0
30.71554354 91.006811 0
30.96715872 93.53408634 0
31.21027928 96.08037917 0
31.4449117 98.64503414 0
31.67106384 101.2273961 0
31.88874525 103.8268101 0
32.09796754 106.4426218 0
32.29874478 109.0741774 0
32.49109406 111.720824 0
32.67503602 114.3819107 0
32.85059554 117.0567885 0
33.01780253 119.7448123 0
33.17669273 122.4453422 0
33.3273085 125.1577466 0
33.46969967 127.8814058 0
33.60392398 130.6157178 0
33.73004718 133.3601071 0
33.84814215 136.1140371 0
33.95828638 138.8770284 0
34.06055673 141.6486855 0
34.15501959 144.4287362 0
34.24171338 147.2170899 0
34.32061867 150.0139237 0
34.39160765 152.8198121 0
34.45436011 155.6359262 0
34.50822554 158.4643454 0
34.55200645 161.3085707 0
34.58367741 164.1743132 0
34.60025395 167.0709194 0
34.59928754 170.0107431 0
34.57897389 172.9889373 0
0 0 0
0.6740078826 0.004252701448 0
1.344478925 0.07537319143 0
2.01312098 0.2408172576 0
2.679834384 0.5005312819 0
3.344240928 0.8454059145 0
4.005180615 1.26668588 0
4.661351039 1.757587568 0
5.311641099 2.313059898 0
5.955217315 2.929360236 0
6.591499362 3.603677942 0
7.220105187 4.33385721 0
7.840796799 5.118199478 0
8.453436124 5.955324856 0
9.057951945 6.844075301 0
9.654316238 7.783447048 0
10.24252776 8.77254349 0
10.82260093 9.810542356 0
11.39455848 10.89667285 0
11.95842675 12.03019977 0
12.51423272 13.2104125 0
13.0620023 14.43661735 0
13.60175939 15.70813232 0
14.13352542 17.02428341 0
14.65731926 18.38440216 0
15.1731573 19.78782392 0
15.6810536 21.23388664 0
16.18102014 22.72193008 0
16.67306706 24.25129527 0
17.15720289 25.82132411 0
17.6334348 27.43135911 0
18.10176877 29.08074322 0
18.5622098 30.7688197 0
19.01476206 32.49493203 0
19.45942901 34.25842388 0
19.89621353 36.05863903 0
20.32511802 37.89492135 0
20.74614448 39.7666148 0
21.15929458 41.6730634 0
21.56456971 43.61361119 0
21.96197103 45.58760229 0
22.35149955 47.59438082 0
22.7331561 49.63329095 0
23.10694142 51.70367685 0
23.47285614 53.80488272 0
23.83090085 55.9362528 0
24.18107608 58.09713131 0
24.52338234 60.2868625 0
24.85782012 62.50479066 0
25.18438995 64.75026006 0
25.50309236 67.02261499 0
25.81392794 69.32119979 0
26.11689737 71.64535877 0
26.4120014 73.99443631 0
26.69924091 76.36777677 0
26.97861694 78.76472456 0
27.25013071 81.18462413 0
27.51378369 83.62681995 0
27.76957763 86.09065656 0
28.01751461 88.57547857 0
28.25759717 91.08063065 0
28.48982831 93.60545761 0
28.71421166 96.14930441 0
28.93075156 98.71151621 0
29.13945319 101.2914385 0
29.34032276 103.8884171 0
29.53336762 106.5017986 0
29.71859646 109.1309303 0
29.8960195 111.7751609 0
30.06564866 114.4338408 0
30.22749766 117.1063231 0
30.38158211 119.791965 0
30.5279194 122.490129 0
30.66652837 125.2001865 0
30.7974286 127.9215205 0
30.92063908 130.653532 0
31.03617594 133.3956479 0
31.14404876 136.1473323 0
31.24425479 138.9081039 0
31.33677006 141.67756 0
31.421536 144.4554126 0
31.49843969 147.241539 0
31.56728529 150.0360564 0
31.62775421 152.8394308 0
31.67935268 155.652634 0
31.72135153 158.4773729 0
31.75274242 161.3164027 0
31.77227696 164.173892 0
31.77872738 167.0553833 0
31.77113989 169.9641653 0
31.74927635 172.8905304 0
0 0 0
0.6128683992 0.07571879287 0
1.22265673 0.2001687356 0
1.829661044 0.3974149054 0
2.434183853 0.6740443099 0
3.035976507 1.027398619 0
3.634508812 1.452444902 0
4.229081066 1.944422023 0
4.818972158 2.499413838 0
5.403535776 3.114327119 0
5.982240128 3.786733049 0
6.554671281 4.514703559 0
7.120519422 5.296676873 0
7.679559588 6.13135497 0
8.231632655 7.017628084 0
8.776628884 7.954520058 0
9.314474659 8.941149202 0
9.845122221 9.97670045 0
10.36854197 11.06040563 0
10.88471677 12.19152953 0
11.39363792 13.36936011 0
11.89530216 14.59320159 0
12.38970973 15.86236964 0
12.8768629 17.17618798 0
13.35676508 18.53398602 0
13.82942015 19.93509719 0
14.29483213 21.37885777 0
14.75300486 22.86460612 0
15.20394196 24.39168203 0
15.64764666 25.95942639 0
16.08412185 27.56718088 0
16.51337006 29.21428773 0
16.93539348 30.90008962 0
17.35019399 32.62392958 0
17.75777321 34.38515087 0
18.15813249 36.18309694 0
18.55127301 38.01711143 0
18.93719574 39.88653805 0
19.31590151 41.79072067 0
19.68739102 43.72900318 0
20.05166487 45.70072959 0
20.40872357 47.70524393 0
20.75856755 49.74189028 0
21.10119718 51.81001277 0
21.43661282 53.90895557 0
21.76481475 56.03806286 0
22.08580326 58.19667886 0
22.39957861 60.38414782 0
22.70614108 62.599814 0
23.00549092 64.84302171 0
23.29762842 67.11311526 0
23.58255389 69.40943901 0
23.86026768 71.73133733 0
24.13077017 74.07815465 0
24.39406181 76.44923541 0
24.65014312 78.84392414 0
24.89901473 81.26156538 0
25.14067733 83.70150378 0
25.37513178 86.16308407 0
25.60237907 88.64565106 0
25.82242037 91.14854974 0
26.03525703 93.67112525 0
26.24089064 96.21272297 0
26.43932302 98.77268859 0
26.63055623 101.3503682 0
26.81459262 103.9451084 0
26.99143474 106.5562567 0
27.16108533 109.1831614 0
27.32354722 111.8251725 0
27.47882311 114.4816418 0
27.62691525 117.1519242 0
27.76782504 119.8353785 0
27.90155217 122.5313693 0
28.02809363 125.2392694 0
28.14744205 127.9584636 0
28.25958341 130.6883533 0
28.36449375 133.428364 0
28.4621346 136.1779557 0
28.55244662 138.9366375 0
28.63534101 141.7039885 0
28.71068815 144.4796877 0
28.77830303 147.2635559 0
28.83792753 150.0556141 0
28.88921109 152.8561648 0
28.93169382 155.6658998 0
28.96480178 158.4860333 0
28.9878715 161.3184254 0
29.0002248 164.1655473 0
29.00128919 167.0296233 0
28.99077026 169.9094431 0
28.96862449 172.7955369 0
0 0 0
0.5525352369 0.1315059232 0
1.102350703 0.3009381862 0
1.649521805 0.5286348639 0
2.194101371 0.8236663511 0
2.735989681 1.187411133 0
3.274878902 1.617890569 0
3.810337296 2.112263707 0
4.341882376 2.667788219 0
4.869037872 3.282090399 0
5.391370091 3.953186322 0
5.908505489 4.679425326 0
6.42013477 5.459419208 0
6.926009069 6.291978337 0
7.425932367 7.176060038 0
7.919752766 8.110728976 0
8.407354049 9.095127597 0
8.88864821 10.12845443 0
9.36356916 11.20994832 0
9.832067624 12.33887707 0
10.29410709 13.51452928 0
10.74966063 14.73620848 0
11.1987085 16.00322895 0
11.64123628 17.31491275 0
12.07723348 18.67058758 0
12.50669248 20.06958522 0
12.92960781 21.51124048 0
13.3459755 22.99489038 0
13.75579272 24.51987359 0
14.15905745 26.08553004 0
14.55576825 27.69120055 0
14.94592408 29.3362267 0
15.32952423 31.01995059 0
15.70656818 32.74171476 0
16.07705559 34.5008621 0
16.44098619 36.29673573 0
16.79835982 38.12867901 0
17.14917636 39.99603547 0
17.49343573 41.89814877 0
17.83113787 43.83436268 0
18.16228275 45.80402108 0
18.48687034 47.80646791 0
18.80490062 49.84104719 0
19.1163736 51.90710298 0
19.42128925 54.00397941 0
19.71964758 56.13102062 0
20.01144859 58.28757083 0
20.29669226 60.47297427 0
20.57537862 62.68657521 0
20.84750764 64.92771796 0
21.11307933 67.19574686 0
21.37209367 69.4900063 0
21.62455067 71.8098407 0
21.8704503 74.15459455 0
22.10979253 76.52361238 0
22.34257732 78.9162388 0
22.56880462 81.3318185 0
22.78847433 83.76969627 0
23.00158634 86.22921703 0
23.20814045 88.70972583 0
23.40813639 91.21056794 0
23.6015738 93.73108884 0
23.78845214 96.27063435 0
23.96877063 98.82855064 0
24.14252821 101.4041844 0
24.30972335 103.9968831 0
24.47035393 106.6059948 0
24.62441698 109.2308691 0
24.77190837 111.8708569 0
24.91282234 114.5253115 0
25.04715094 117.1935889 0
25.17488321 119.8750493 0
25.29600408 122.5690586 0
25.41049295 125.2749904 0
25.51832173 127.9922292 0
25.61945236 130.7201749 0
25.71383349 133.4582484 0
25.80139636 136.2059008 0
25.88204952 138.9626245 0
25.9556725 141.7279707 0
26.02210847 144.5015709 0
26.08115624 147.2831689 0
26.1325629 150.0726604 0
26.17601901 152.8701448 0
26.21116026 155.6759816 0
26.23758072 158.4908352 0
26.25486389 161.3156441 0
26.26263541 164.1513286 0
26.26063571 166.9977757 0
26.24876298 169.8516929 0
26.22704714 172.7045028 0
0 0 0
0.4933941557 0.1761152503 0
0.9844902835 0.3832660961 0
1.473206117 0.6386440069 0
1.959522101 0.9519741841 0
2.44334511 1.326969428 0
2.92447486 1.763916419 0
3.402619904 2.261630614 0
3.877437932 2.81847975 0
4.348571881 3.432815867 0
4.815676396 4.10312625 0
5.27843462 4.828065666 0
5.736566847 5.606443502 0
6.189833189 6.437197384 0
6.638032353 7.319365908 0
7.080998212 8.252064954 0
7.518595397 9.23446859 0
7.950714666 10.26579427 0
8.377268505 11.34529165 0
8.79818719 12.47223418 0
9.21341539 13.64591292 0
9.622909319 14.86563201 0
10.02663438 16.13070522 0
10.42456327 17.44045355 0
10.81667442 18.7942034 0
11.20295083 20.19128519 0
11.58337902 21.63103245 0
11.95794836 23.11278099 0
12.32665038 24.63586845 0
12.68947837 26.19963381 0
13.04642698 27.80341714 0
13.39749195 29.44655933 0
13.74266983 31.12840193 0
14.08195789 32.84828704 0
14.4153539 34.60555712 0
14.74285609 36.39955501 0
15.06446299 38.2296238 0
15.38017342 40.0951068 0
15.68998642 41.99534749 0
15.99390119 43.92968952 0
16.29191708 45.89747662 0
16.58403354 47.89805266 0
16.8702501 49.93076158 0
17.15056638 51.99494739 0
17.42498201 54.08995416 0
17.69349671 56.21512602 0
17.95611017 58.36980716 0
18.21282214 60.5533418 0
18.46363235 62.76507421 0
18.70854052 65.00434872 0
18.94754637 67.27050969 0
19.18064956 69.56290155 0
19.40784976 71.88086875 0
19.62914652 74.22375586 0
19.84453936 76.59090749 0
20.05402769 78.98166833 0
20.2576108 81.39538322 0
20.45528782 83.83139709 0
20.6470577 86.28905505 0
20.83291911 88.76770239 0
21.01287046 91.26668465 0
21.18690975 93.78534766 0
21.35503446 96.32303764 0
21.51724149 98.87910125 0
21.67352693 101.4528858 0
21.82388585 104.0437393 0
21.96831206 106.6510109 0
22.10679772 109.2740507 0
22.2393329 111.912211 0
22.36590502 114.5648458 0
22.48649808 117.2313124 0
22.60109174 119.9109719 0
22.70966016 122.6031906 0
22.81217049 125.307342 0
22.90858104 128.0228092 0
22.99883903 130.7489882 0
23.08287792 133.4852929 0
23.16061418 136.2311611 0
23.23194374 138.9860634 0
23.29673815 141.7495142 0
23.35484085 144.5210873 0
23.40606415 147.300434 0
23.45018813 150.0873058 0
23.48696277 152.8815757 0
23.51611562 155.6832494 0
23.53736717 158.4924382 0
23.55045592 161.3092239 0
23.55517278 164.1332651 0
23.55139457 166.962917 0
23.53909596 169.7938957 0
23.51831641 172.6183405 0
0 0 0
0.4354925579 0.2122667638 0
0.8690601212 0.4509516565 0
1.300567268 0.7307674866 0
1.729943666 1.061322858 0
2.157100352 1.447608715 0
2.58188747 1.89149149 0
3.004094286 2.393122429 0
3.423467502 2.951852568 0
3.839733474 3.566719164 0
4.25261704 4.236675681 0
4.661855165 4.960690112 0
5.067205648 5.737780493 0
5.46845175 6.567022276 0
5.865403778 7.447544209 0
6.257898572 8.378520378 0
6.645797703 9.359161794 0
7.028984987 10.3887088 0
7.407363732 11.46642475 0
7.780854002 12.59159084 0
8.14939005 13.76350216 0
8.512918006 14.98146449 0
8.871393864 16.24479189 0
9.224781744 17.55280486 0
9.573052432 18.90482888 0
9.916182164 20.30019331 0
10.25415161 21.73823055 0
10.58694505 23.21827538 0
10.91454971 24.73966448 0
11.23695515 26.30173598 0
11.55415291 27.90382921 0
11.86613606 29.54528445 0
12.17289895 31.22544271 0
12.47443697 32.94364562 0
12.77074633 34.69923531 0
13.06182393 36.49155428 0
13.34766722 38.31994538 0
13.6282741 40.1837517 0
13.90364283 42.08231656 0
14.17377197 44.01498344 0
14.43866032 45.981096 0
14.69830687 47.979998 0
14.95271076 50.0110333 0
15.20187124 52.07354585 0
15.44578768 54.1668797 0
15.68445948 56.29037894 0
15.91788612 58.44338772 0
16.14606708 60.62525028 0
16.36900187 62.83531089 0
16.58668996 65.07291387 0
16.79913081 67.33740362 0
17.00632382 69.62812459 0
17.20826831 71.94442131 0
17.40496352 74.28563837 0
17.59640853 76.65112047 0
17.78260228 79.04021242 0
17.96354348 81.45225916 0
18.13923061 83.88660578 0
18.3096618 86.34259757 0
18.47483479 88.81958005 0
18.63474684 91.31689903 0
18.78939459 93.83390067 0
18.93877395 96.36993156 0
19.08287988 98.92433887 0
19.22170622 101.4964704 0
19.35524539 104.0856749 0
19.48348808 106.691302 0
19.60642281 109.312703 0
19.72403546 111.9492306 0
19.83630861 114.60024 0
19.94322084 117.2650891 0
20.04474574 119.9431395 0
20.14085088 122.6337575 0
20.23149643 125.3363156 0
20.31663368 128.0501943 0
20.39620322 130.7747844 0
20.47013302 133.5094902 0
20.53833629 136.2537334 0
20.60070941 139.0069583 0
20.65713002 141.7686376 0
20.7074558 144.5382796 0
20.75152432 147.3154351 0
20.78915478 150.0997016 0
20.82015264 152.8907191 0
20.844318 155.6881432 0
20.86145878 158.491567 0
20.87140871 161.300331 0
20.87404782 164.1131264 0
20.86931803 166.9273129 0
20.85722147 169.7380963 0
20.83779701 172.5380889 0
0 0 0
0.3787130292 0.2417127484 0
0.7558302502 0.5066369779 0
1.131200741 0.8075780798 0
1.504734155 1.153737758 0
1.876342673 1.55076253 0
2.245906851 2.001579622 0
2.613266819 2.507367906 0
2.978229709 3.068306854 0
3.340582776 3.684048282 0
3.70010641 4.353982971 0
4.056584688 5.07738282 0
4.40981293 5.853473728 0
4.759602516 6.681471503 0
5.105783455 7.560598495 0
5.448205253 8.490090374 0
5.786736579 9.469198009 0
6.121264156 10.49718701 0
6.4516912 11.5733363 0
6.777935662 12.6969363 0
7.09992841 13.86728719 0
7.4176115 15.08369725 0
7.730936557 16.34548146 0
8.039863329 17.65196027 0
8.344358408 19.00245861 0
8.644394123 20.39630501 0
8.939947588 21.83283099 0
9.230999899 23.3113704 0
9.517535452 24.83125908 0
9.799541372 26.3918344 0
10.07700704 27.99243501 0
10.3499237 29.63240061 0
10.61828413 31.31107171 0
10.88208236 33.02778954 0
11.14131348 34.78189585 0
11.39597341 36.57273287 0
11.64605879 38.39964318 0
11.89156683 40.2619697 0
12.1324952 42.15905557 0
12.36884198 44.09024414 0
12.60060554 46.05487896 0
12.82778451 48.05230369 0
13.05037773 50.08186214 0
13.26838419 52.1428982 0
13.481803 54.23475587 0
13.69063337 56.35677922 0
13.89487456 58.50831238 0
14.09452589 60.68869958 0
14.28958665 62.89728509 0
14.48005614 65.13341324 0
14.66593362 67.39642846 0